 &FCI NORB=           7 , NELEC=          10 , MS2=           0 ,
 ORBSYM=1,1,1,1,1,1,1,
 ISYM=0,
 /
  0.67176366620994787                1           1           1           1
   7.4422240939342466E-008           2           1           1           1
   2.6959749536739935E-002           3           1           1           1
  0.11263262406808908                5           1           1           1
   2.0080360185747992E-007           6           1           1           1
  0.10962121517379494                7           1           1           1
  0.15325268237409273                2           1           2           1
   9.4510359260890908E-010           3           1           2           1
  -3.5980582610561918E-009           5           1           2           1
   2.5536522347037190E-002           6           1           2           1
  -4.7994368111703434E-008           7           1           2           1
  0.13711329885973259                3           1           3           1
   7.7707144134778069E-002           5           1           3           1
  -4.2654493478955224E-009           6           1           3           1
   1.4165710436512673E-002           7           1           3           1
   9.1115771816360214E-002           4           1           4           1
  0.13393244450613886                5           1           5           1
   6.5914745370210248E-008           6           1           5           1
   4.2498792551092734E-002           7           1           5           1
   7.2295760775073090E-002           6           1           6           1
   6.1662575344617956E-008           7           1           6           1
  0.11941481373268714                7           1           7           1
  0.63711409139996000                2           2           1           1
  -1.6590588181042421E-008           3           2           1           1
  -3.3518515046848663E-008           5           2           1           1
  -7.6292846825330468E-002           6           2           1           1
   1.0780766923623730E-007           7           2           1           1
  -1.9037408578378989E-008           2           2           2           1
  -2.7874794927911714E-003           3           2           2           1
  -3.6162578902787304E-002           5           2           2           1
  -3.1765398655209109E-008           6           2           2           1
   9.1816944085693075E-005           7           2           2           1
  -1.3200699321841425E-008           3           2           3           1
  -1.8201396008443727E-008           5           2           3           1
  -8.8331506173594129E-002           6           2           3           1
   1.6057331489460758E-007           7           2           3           1
  -9.3366289897508078E-010           4           2           4           1
  -1.4728238951350336E-008           5           2           5           1
  -4.5340816801641801E-002           6           2           5           1
   6.9332175629127635E-008           7           2           5           1
  -2.7580658294723559E-007           6           2           6           1
  -5.9366165481896278E-002           7           2           6           1
   2.6544558353290559E-007           7           2           7           1
  0.76351637458538824                3           3           1           1
  0.16861593540246103                5           3           1           1
  -2.0119809038265934E-007           6           3           1           1
  -8.7453769379592386E-002           7           3           1           1
   3.1600807668535902E-008           3           3           2           1
  -3.7403964335547268E-009           5           3           2           1
  -6.1163405633067623E-002           6           3           2           1
   1.1083781956424179E-007           7           3           2           1
  0.34738753573793213                3           3           3           1
  0.21257918065860154                5           3           3           1
  -1.4098936795131634E-007           6           3           3           1
  -6.9053105429470352E-002           7           3           3           1
   3.4086867577882977E-002           4           3           4           1
  0.28362575571596937                5           3           5           1
  -2.1457060086355062E-007           6           3           5           1
 -0.10659490518087689                7           3           5           1
  -2.4440344119900093E-003           6           3           6           1
  -4.9102314805298078E-008           7           3           6           1
  -3.7066760736068481E-002           7           3           7           1
  0.66549403639165206                4           4           1           1
   3.2613046224627741E-008           4           4           2           1
  0.11362856066026396                4           4           3           1
  -2.0220733467498021E-002           5           4           4           1
   1.4716435774338177E-007           6           4           4           1
   8.3816875695636395E-002           7           4           4           1
  0.78509438146830779                5           5           1           1
  -6.0916740568517369E-008           6           5           1           1
  -2.2092257583562452E-002           7           5           1           1
   3.3022184372372143E-008           5           5           2           1
  -6.4564019188062018E-004           6           5           2           1
  -1.1049667544686109E-008           7           5           2           1
  0.38656438695271600                5           5           3           1
  -2.2129001008702742E-007           6           5           3           1
 -0.10666711524910817                7           5           3           1
  0.38905060015071846                5           5           5           1
  -1.5133756742571891E-007           6           5           5           1
  -6.4006657363481753E-002           7           5           5           1
  -1.6303720866337350E-002           6           5           6           1
   5.8021592451311003E-008           7           5           6           1
   9.0045682180451975E-003           7           5           7           1
  0.58956675938911007                6           6           1           1
   7.0500316192816103E-008           7           6           1           1
  -4.4952400480094412E-007           6           6           2           1
 -0.12789380421753244                7           6           2           1
   3.9295003228608849E-002           6           6           3           1
   8.3587070541637185E-009           7           6           3           1
   5.7142370284794727E-002           6           6           5           1
   1.2666883608050672E-007           7           6           5           1
  -8.5292982206566781E-008           6           6           6           1
  -4.4275830912912283E-002           7           6           6           1
   1.9848712777423447E-007           7           6           7           1
  0.66095222518309626                7           7           1           1
   4.7994385387828751E-007           7           7           2           1
   3.8178053647957289E-002           7           7           3           1
  0.12635545239711310                7           7           5           1
   3.6106641726449452E-007           7           7           6           1
  0.11432630474264323                7           7           7           1
  -1.9037408578378989E-008           2           1           2           2
   4.6319410715746537E-002           3           1           2           2
   6.5105062632783539E-002           5           1           2           2
   1.4680905115194154E-007           6           1           2           2
   9.8785283785497086E-002           7           1           2           2
  -1.3200699321841425E-008           3           1           3           2
  -1.7359963026992997E-008           5           1           3           2
  -3.2371952963689103E-002           6           1           3           2
   5.5154542968807035E-008           7           1           3           2
  -9.3366289897508078E-010           4           1           4           2
  -1.4728238951350336E-008           5           1           5           2
  -4.8287420704170875E-003           6           1           5           2
  -2.5279636283598306E-009           7           1           5           2
  -2.7580658294723559E-007           6           1           6           2
  -9.6786609610458457E-002           7           1           6           2
   2.6544558353290559E-007           7           1           7           2
  0.66873091148647568                2           2           2           2
  -1.1710880348791974E-008           3           2           2           2
  -8.3991912869230134E-009           5           2           2           2
 -0.11364772484604702                6           2           2           2
   1.8523901565425938E-007           7           2           2           2
   3.2909699245878138E-002           3           2           3           2
  -1.1469564666469423E-002           5           2           3           2
   6.0178219263642974E-008           6           2           3           2
   2.0522496509593938E-002           7           2           3           2
   3.2911768726962574E-002           4           2           4           2
   2.9318967171716018E-002           5           2           5           2
   2.6084980390105039E-008           6           2           5           2
   2.2915907072232171E-003           7           2           5           2
  0.14856278471475007                6           2           6           2
  -1.3064573765875220E-007           7           2           6           2
   5.6877708035333256E-002           7           2           7           2
  0.73777750428043365                3           3           2           2
   9.3633088953053334E-002           5           3           2           2
  -8.8512571466692336E-008           6           3           2           2
  -5.2232515474226499E-002           7           3           2           2
  -5.9477983082104058E-008           3           3           3           2
  -3.0719348691546355E-008           5           3           3           2
  -2.0575263163389135E-002           6           3           3           2
   4.8239804998645629E-008           7           3           3           2
  -4.0823801167408925E-009           4           3           4           2
  -3.7138314459318755E-008           5           3           5           2
   2.3173006415574203E-002           6           3           5           2
  -2.5241555352805696E-008           7           3           5           2
   8.7953156556463963E-008           6           3           6           2
   4.3342611722484187E-002           7           3           6           2
  -6.9402508359576251E-008           7           3           7           2
  0.66199758627744520                4           4           2           2
  -2.7263243624230759E-008           4           4           3           2
  -6.9900229528185864E-010           5           4           4           2
  -2.2931926091387493E-002           6           4           4           2
   3.2851280543217208E-008           7           4           4           2
  0.74258095421283765                5           5           2           2
  -6.8420477172814742E-008           6           5           2           2
  -3.1280533907718094E-002           7           5           2           2
  -6.0215215525599719E-008           5           5           3           2
   1.5713925605332493E-002           6           5           3           2
  -1.3760039109917961E-008           7           5           3           2
  -7.5658554126584177E-008           5           5           5           2
  -1.8521723325993694E-002           6           5           5           2
   4.8220644488154548E-008           7           5           5           2
   1.4435077188429402E-007           6           5           6           2
   5.2092538835537633E-002           7           5           6           2
  -1.1913070979927266E-007           7           5           7           2
  0.60626387353561806                6           6           2           2
   5.7348178666779336E-008           7           6           2           2
   1.9275160894477450E-008           6           6           3           2
   8.2491878030536651E-003           7           6           3           2
   1.0575835785071874E-007           6           6           5           2
   3.1432315638756876E-002           7           6           5           2
  -6.5939453872310566E-002           6           6           6           2
   3.9292155956407822E-008           7           6           6           2
   2.0650967058521163E-002           7           6           7           2
  0.61953524348913458                7           7           2           2
  -4.5910501230700709E-008           7           7           3           2
  -1.3729559027862922E-007           7           7           5           2
  -7.7490922760652697E-002           7           7           6           2
   3.1245041902972409E-008           7           7           7           2
  0.34738753573793213                3           1           3           3
  0.32258309488776149                5           1           3           3
   1.9283268942738019E-007           6           1           3           3
  0.13824104431853232                7           1           3           3
   3.4086867577882977E-002           4           1           4           3
  0.28362575571596937                5           1           5           3
  -3.9990604175366151E-008           6           1           5           3
  -2.9430121572279443E-003           7           1           5           3
  -2.4440344119900093E-003           6           1           6           3
  -6.1455323059622646E-008           7           1           6           3
  -3.7066760736068481E-002           7           1           7           3
  -5.9477983082104058E-008           3           2           3           3
  -6.2581261200955751E-008           5           2           3           3
 -0.26313758876894161                6           2           3           3
   4.4175411662017439E-007           7           2           3           3
  -4.0823801167408925E-009           4           2           4           3
  -3.7138314459318755E-008           5           2           5           3
  -5.7905747236581040E-002           6           2           5           3
   1.0514662758531745E-007           7           2           5           3
   8.7953156556463963E-008           6           2           6           3
  -4.1580360098479596E-004           7           2           6           3
  -6.9402508359576251E-008           7           2           7           3
   1.6791779098921324                3           3           3           3
  0.71538247682766742                5           3           3           3
  -5.8604034181009013E-007           6           3           3           3
 -0.28941382502589386                7           3           3           3
   5.0904804435605411E-002           4           3           4           3
  0.74567089889351734                5           3           5           3
  -4.8897722697630042E-007           6           3           5           3
 -0.23719980302378224                7           3           5           3
   4.5407640740828106E-002           6           3           6           3
   1.1819394405308227E-007           7           3           6           3
   9.9537712464284792E-002           7           3           7           3
  0.91717605255455703                4           4           3           3
  -2.5606959897305569E-002           5           4           4           3
   5.3230304887866287E-008           6           4           4           3
   2.9375922937186778E-002           7           4           4           3
   1.7740712324284089                5           5           3           3
  -6.2148644991433244E-007           6           5           3           3
 -0.28880685993130661                7           5           3           3
  0.86913894703714467                5           5           5           3
  -4.4628647279110201E-007           6           5           5           3
 -0.20802496539808404                7           5           5           3
  -8.1963111993223897E-003           6           5           6           3
   1.5376275610838942E-007           7           5           6           3
   6.5966309569615689E-002           7           5           7           3
  0.68303308214877079                6           6           3           3
   1.7207854673855922E-007           7           6           3           3
   9.6162324756052547E-002           6           6           5           3
   1.9364990246362055E-007           7           6           5           3
   1.1880071868093645E-007           6           6           6           3
   5.3581858611501901E-002           7           6           6           3
  -2.1121292288279093E-007           7           6           7           3
  0.77903549015307394                7           7           3           3
  0.19677549848741960                7           7           5           3
  -3.9602426154545525E-007           7           7           6           3
  -9.8724605640078816E-002           7           7           7           3
  0.10261171894748719                5           1           4           4
   3.0113606502846224E-007           6           1           4           4
  0.18084570803591310                7           1           4           4
  -3.1781821951959444E-008           5           2           4           4
 -0.18670548933723707                6           2           4           4
   2.9641692708692879E-007           7           2           4           4
  0.13411297974095507                5           3           4           4
  -1.7188299522574724E-007           6           3           4           4
  -8.4769478457998759E-002           7           3           4           4
  0.88015910074268178                4           4           4           4
   3.7889364136482404E-002           5           4           5           4
  -3.4710361212011986E-008           6           4           5           4
  -1.8857453532404256E-002           7           4           5           4
   2.0210919517603888E-002           6           4           6           4
   1.1641974475156997E-007           7           4           6           4
   8.5003044941235478E-002           7           4           7           4
  0.92963925272635406                5           5           4           4
  -1.6389836560160020E-007           6           5           4           4
  -7.2571986445623460E-002           7           5           4           4
  -1.8122989314546789E-015           5           5           5           4
  0.59118606466378987                6           6           4           4
   1.2194646364301406E-007           7           6           4           4
  0.66761965505932297                7           7           4           4
  0.38905060015071846                5           1           5           5
   1.9390255688589431E-007           6           1           5           5
  0.14665074167289183                7           1           5           5
  -1.6303720866337350E-002           6           1           6           5
   3.7356938485319513E-008           7           1           6           5
   9.0045682180451975E-003           7           1           7           5
  -7.5658554126584177E-008           5           2           5           5
 -0.27586219058130318                6           2           5           5
   4.6685403939927816E-007           7           2           5           5
   1.4435077188429402E-007           6           2           6           5
   1.3691105452754605E-002           7           2           6           5
  -1.1913070979927266E-007           7           2           7           5
  0.86913894703714467                5           3           5           5
  -6.8105234263260428E-007           6           3           5           5
 -0.33287664873412270                7           3           5           5
  -8.1963111993223897E-003           6           3           6           5
   1.6055450169573122E-007           7           3           6           5
   6.5966309569615689E-002           7           3           7           5
  -1.8122989314546789E-015           5           4           5           5
   1.9673737448000930                5           5           5           5
  -6.9889422760205377E-007           6           5           5           5
 -0.32366089900459133                7           5           5           5
   2.2493537787905520E-002           6           5           6           5
   1.7528385717209156E-007           7           5           6           5
  0.10537281820099390                7           5           7           5
  0.68241411244192307                6           6           5           5
   2.3105884204152392E-007           7           6           5           5
  -3.3701590588554320E-008           6           6           6           5
   6.6873482992620588E-003           7           6           6           5
  -7.5065384771295901E-009           7           6           7           5
  0.81030585858162874                7           7           5           5
  -9.2529487331240652E-008           7           7           6           5
  -2.4610561677675322E-002           7           7           7           5
  -8.5292982206566781E-008           6           1           6           6
   5.1845632331409139E-002           7           1           6           6
   1.9848712777423447E-007           7           1           7           6
  -6.5939453872310566E-002           6           2           6           6
   1.8695567452486905E-007           7           2           6           6
   2.0650967058521163E-002           7           2           7           6
   1.1880071868093645E-007           6           3           6           6
  -3.6887176002511401E-002           7           3           6           6
  -2.1121292288279093E-007           7           3           7           6
  -3.3701590588554320E-008           6           5           6           6
  -2.5906421871602525E-002           7           5           6           6
  -7.5065384771295901E-009           7           5           7           6
  0.59082410260537532                6           6           6           6
   4.6014666277457803E-007           7           6           6           6
  0.12868995225743643                7           6           7           6
  0.58727528763104286                7           7           6           6
  -3.2164611587796364E-007           7           7           7           6
  0.11432630474264323                7           1           7           7
   3.1245041902972409E-008           7           2           7           7
  -9.8724605640078816E-002           7           3           7           7
  -2.4610561677675322E-002           7           5           7           7
  -3.2164611587796364E-007           7           6           7           7
  0.67505021627653816                7           7           7           7
  -8.7809203972665255                1           1           0           0
  -1.4126773964506789E-007           2           1           0           0
  -5.2258848587728401                3           1           0           0
   7.7831722984277917E-015           4           1           0           0
  -5.1947118609088880                5           1           0           0
  -1.3000316962386016E-006           6           1           0           0
  -1.0879158881663589                7           1           0           0
  -6.6545892521809602                2           2           0           0
   7.0170782751066696E-007           3           2           0           0
  -1.2519495919101855E-015           4           2           0           0
   7.2533839598487582E-007           5           2           0           0
   1.6171018679888558                6           2           0           0
  -2.6361709776767661E-006           7           2           0           0
  -18.730027912829549                3           3           0           0
   1.4003189709384719E-014           4           3           0           0
  -11.317686953069606                5           3           0           0
   5.5228696642373176E-006           6           3           0           0
   2.4091588460499560                7           3           0           0
  -7.4552710429888087                4           4           0           0
   1.6658121290015024E-014           5           4           0           0
  -1.3252843083282558E-015           6           4           0           0
  -5.1547514112247666E-015           7           4           0           0
  -18.831789270343478                5           5           0           0
   5.5635751580254689E-006           6           5           0           0
   2.3688769425662892                7           5           0           0
  -5.3057034578883471                6           6           0           0
  -2.0796920524035478E-006           7           6           0           0
  -6.3415843960641372                7           7           0           0
   9.1681943398780472                0           0           0           0
