 &FCI NORB=           2 , NELEC=           2 , MS2=           0 ,
 ORBSYM=1,1,
 ISYM=0,
 /
  0.67475592681348873                1           1           1           1
  0.18121046201494442                2           1           2           1
  0.66371140134986573                2           2           1           1
   1.1934897514720433E-015           2           2           2           1
   1.1934897514720433E-015           2           1           2           2
  0.69765150448945734                2           2           2           2
  -1.2533097866459868                1           1           0           0
 -0.47506884877222921                2           2           0           0
  0.71510433908108118                0           0           0           0
